# Multilayer: 10x10-Graphene 10x10-Graphene  cell with dimension 0 x 0 x 2 and a = 1
       400  atoms
         2  atom types

 0.    24.60000000000000  xlo xhi
 0.    21.30420000000000  ylo yhi
 -5.     8.40000000000000  zlo zhi
   12.30000000000000     0.00000000000000     0.00000000000000 xy xz yz

Masses

1 12.0112
2 12.0112

Atoms

1 1     0.00000000000000     0.00000000000000     0.00000000000000
2 1     1.23000000000000     2.13042000000000     0.00000000000000
3 1     2.46000000000000     4.26084000000000     0.00000000000000
4 1     3.69000000000000     6.39126000000000     0.00000000000000
5 1     4.92000000000000     8.52168000000000     0.00000000000000
6 1     6.15000000000000    10.65210000000000     0.00000000000000
7 1     7.38000000000000    12.78252000000000     0.00000000000000
8 1     8.61000000000000    14.91294000000000     0.00000000000000
9 1     9.84000000000000    17.04336000000000     0.00000000000000
10 1    11.07000000000000    19.17378000000000     0.00000000000000
11 1     2.46000000000000     0.00000000000000     0.00000000000000
12 1     3.69000000000000     2.13042000000000     0.00000000000000
13 1     4.92000000000000     4.26084000000000     0.00000000000000
14 1     6.15000000000000     6.39126000000000     0.00000000000000
15 1     7.38000000000000     8.52168000000000     0.00000000000000
16 1     8.61000000000000    10.65210000000000     0.00000000000000
17 1     9.84000000000000    12.78252000000000     0.00000000000000
18 1    11.07000000000000    14.91294000000000     0.00000000000000
19 1    12.30000000000000    17.04336000000000     0.00000000000000
20 1    13.53000000000000    19.17378000000000     0.00000000000000
21 1     4.92000000000000     0.00000000000000     0.00000000000000
22 1     6.15000000000000     2.13042000000000     0.00000000000000
23 1     7.38000000000000     4.26084000000000     0.00000000000000
24 1     8.61000000000000     6.39126000000000     0.00000000000000
25 1     9.84000000000000     8.52168000000000     0.00000000000000
26 1    11.07000000000000    10.65210000000000     0.00000000000000
27 1    12.30000000000000    12.78252000000000     0.00000000000000
28 1    13.53000000000000    14.91294000000000     0.00000000000000
29 1    14.76000000000000    17.04336000000000     0.00000000000000
30 1    15.99000000000000    19.17378000000000     0.00000000000000
31 1     7.38000000000000     0.00000000000000     0.00000000000000
32 1     8.61000000000000     2.13042000000000     0.00000000000000
33 1     9.84000000000000     4.26084000000000     0.00000000000000
34 1    11.07000000000000     6.39126000000000     0.00000000000000
35 1    12.30000000000000     8.52168000000000     0.00000000000000
36 1    13.53000000000000    10.65210000000000     0.00000000000000
37 1    14.76000000000000    12.78252000000000     0.00000000000000
38 1    15.99000000000000    14.91294000000000     0.00000000000000
39 1    17.22000000000000    17.04336000000000     0.00000000000000
40 1    18.45000000000000    19.17378000000000     0.00000000000000
41 1     9.84000000000000     0.00000000000000     0.00000000000000
42 1    11.07000000000000     2.13042000000000     0.00000000000000
43 1    12.30000000000000     4.26084000000000     0.00000000000000
44 1    13.53000000000000     6.39126000000000     0.00000000000000
45 1    14.76000000000000     8.52168000000000     0.00000000000000
46 1    15.99000000000000    10.65210000000000     0.00000000000000
47 1    17.22000000000000    12.78252000000000     0.00000000000000
48 1    18.45000000000000    14.91294000000000     0.00000000000000
49 1    19.68000000000000    17.04336000000000     0.00000000000000
50 1    20.91000000000000    19.17378000000000     0.00000000000000
51 1    12.30000000000000     0.00000000000000     0.00000000000000
52 1    13.53000000000000     2.13042000000000     0.00000000000000
53 1    14.76000000000000     4.26084000000000     0.00000000000000
54 1    15.99000000000000     6.39126000000000     0.00000000000000
55 1    17.22000000000000     8.52168000000000     0.00000000000000
56 1    18.45000000000000    10.65210000000000     0.00000000000000
57 1    19.68000000000000    12.78252000000000     0.00000000000000
58 1    20.91000000000000    14.91294000000000     0.00000000000000
59 1    22.14000000000000    17.04336000000000     0.00000000000000
60 1    23.37000000000000    19.17378000000000     0.00000000000000
61 1    14.76000000000000     0.00000000000000     0.00000000000000
62 1    15.99000000000000     2.13042000000000     0.00000000000000
63 1    17.22000000000000     4.26084000000000     0.00000000000000
64 1    18.45000000000000     6.39126000000000     0.00000000000000
65 1    19.68000000000000     8.52168000000000     0.00000000000000
66 1    20.91000000000000    10.65210000000000     0.00000000000000
67 1    22.14000000000000    12.78252000000000     0.00000000000000
68 1    23.37000000000000    14.91294000000000     0.00000000000000
69 1    24.60000000000000    17.04336000000000     0.00000000000000
70 1    25.83000000000000    19.17378000000000     0.00000000000000
71 1    17.22000000000000     0.00000000000000     0.00000000000000
72 1    18.45000000000000     2.13042000000000     0.00000000000000
73 1    19.68000000000000     4.26084000000000     0.00000000000000
74 1    20.91000000000000     6.39126000000000     0.00000000000000
75 1    22.14000000000000     8.52168000000000     0.00000000000000
76 1    23.37000000000000    10.65210000000000     0.00000000000000
77 1    24.60000000000000    12.78252000000000     0.00000000000000
78 1    25.83000000000000    14.91294000000000     0.00000000000000
79 1    27.06000000000000    17.04336000000000     0.00000000000000
80 1    28.29000000000000    19.17378000000000     0.00000000000000
81 1    19.68000000000000     0.00000000000000     0.00000000000000
82 1    20.91000000000000     2.13042000000000     0.00000000000000
83 1    22.14000000000000     4.26084000000000     0.00000000000000
84 1    23.37000000000000     6.39126000000000     0.00000000000000
85 1    24.60000000000000     8.52168000000000     0.00000000000000
86 1    25.83000000000001    10.65210000000000     0.00000000000000
87 1    27.06000000000000    12.78252000000000     0.00000000000000
88 1    28.29000000000000    14.91294000000000     0.00000000000000
89 1    29.52000000000000    17.04336000000000     0.00000000000000
90 1    30.75000000000000    19.17378000000000     0.00000000000000
91 1    22.14000000000000     0.00000000000000     0.00000000000000
92 1    23.37000000000000     2.13042000000000     0.00000000000000
93 1    24.60000000000000     4.26084000000000     0.00000000000000
94 1    25.83000000000000     6.39126000000000     0.00000000000000
95 1    27.06000000000000     8.52168000000000     0.00000000000000
96 1    28.29000000000000    10.65210000000000     0.00000000000000
97 1    29.52000000000000    12.78252000000000     0.00000000000000
98 1    30.75000000000000    14.91294000000000     0.00000000000000
99 1    31.98000000000000    17.04336000000000     0.00000000000000
100 1    33.21000000000000    19.17378000000000     0.00000000000000
101 1     1.23000000000000     0.71014000000000     0.00000000000000
102 1     2.46000000000000     2.84056000000000     0.00000000000000
103 1     3.69000000000000     4.97098000000000     0.00000000000000
104 1     4.92000000000000     7.10140000000000     0.00000000000000
105 1     6.15000000000000     9.23182000000000     0.00000000000000
106 1     7.38000000000000    11.36224000000000     0.00000000000000
107 1     8.61000000000000    13.49266000000000     0.00000000000000
108 1     9.84000000000000    15.62308000000000     0.00000000000000
109 1    11.07000000000000    17.75350000000000     0.00000000000000
110 1    12.30000000000000    19.88392000000000     0.00000000000000
111 1     3.69000000000000     0.71014000000000     0.00000000000000
112 1     4.92000000000000     2.84056000000000     0.00000000000000
113 1     6.15000000000000     4.97098000000000     0.00000000000000
114 1     7.38000000000000     7.10140000000000     0.00000000000000
115 1     8.61000000000000     9.23182000000000     0.00000000000000
116 1     9.84000000000000    11.36224000000000     0.00000000000000
117 1    11.07000000000000    13.49266000000000     0.00000000000000
118 1    12.30000000000000    15.62308000000000     0.00000000000000
119 1    13.53000000000000    17.75350000000000     0.00000000000000
120 1    14.76000000000000    19.88392000000000     0.00000000000000
121 1     6.15000000000000     0.71014000000000     0.00000000000000
122 1     7.38000000000000     2.84056000000000     0.00000000000000
123 1     8.61000000000000     4.97098000000000     0.00000000000000
124 1     9.84000000000000     7.10140000000000     0.00000000000000
125 1    11.07000000000000     9.23182000000000     0.00000000000000
126 1    12.30000000000000    11.36224000000000     0.00000000000000
127 1    13.53000000000000    13.49266000000000     0.00000000000000
128 1    14.76000000000000    15.62308000000000     0.00000000000000
129 1    15.99000000000000    17.75350000000000     0.00000000000000
130 1    17.22000000000000    19.88392000000000     0.00000000000000
131 1     8.61000000000000     0.71014000000000     0.00000000000000
132 1     9.84000000000000     2.84056000000000     0.00000000000000
133 1    11.07000000000000     4.97098000000000     0.00000000000000
134 1    12.30000000000000     7.10140000000000     0.00000000000000
135 1    13.53000000000000     9.23182000000000     0.00000000000000
136 1    14.76000000000000    11.36224000000000     0.00000000000000
137 1    15.99000000000000    13.49266000000000     0.00000000000000
138 1    17.22000000000000    15.62308000000000     0.00000000000000
139 1    18.45000000000000    17.75350000000000     0.00000000000000
140 1    19.68000000000000    19.88392000000000     0.00000000000000
141 1    11.07000000000000     0.71014000000000     0.00000000000000
142 1    12.30000000000000     2.84056000000000     0.00000000000000
143 1    13.53000000000000     4.97098000000000     0.00000000000000
144 1    14.76000000000000     7.10140000000000     0.00000000000000
145 1    15.99000000000000     9.23182000000000     0.00000000000000
146 1    17.22000000000000    11.36224000000000     0.00000000000000
147 1    18.45000000000000    13.49266000000000     0.00000000000000
148 1    19.68000000000000    15.62308000000000     0.00000000000000
149 1    20.91000000000000    17.75350000000000     0.00000000000000
150 1    22.14000000000000    19.88392000000000     0.00000000000000
151 1    13.53000000000000     0.71014000000000     0.00000000000000
152 1    14.76000000000000     2.84056000000000     0.00000000000000
153 1    15.99000000000000     4.97098000000000     0.00000000000000
154 1    17.22000000000000     7.10140000000000     0.00000000000000
155 1    18.45000000000000     9.23182000000000     0.00000000000000
156 1    19.68000000000000    11.36224000000000     0.00000000000000
157 1    20.91000000000000    13.49266000000000     0.00000000000000
158 1    22.14000000000000    15.62308000000000     0.00000000000000
159 1    23.37000000000000    17.75350000000000     0.00000000000000
160 1    24.60000000000000    19.88392000000000     0.00000000000000
161 1    15.99000000000000     0.71014000000000     0.00000000000000
162 1    17.22000000000000     2.84056000000000     0.00000000000000
163 1    18.45000000000000     4.97098000000000     0.00000000000000
164 1    19.68000000000000     7.10140000000000     0.00000000000000
165 1    20.91000000000000     9.23182000000000     0.00000000000000
166 1    22.14000000000000    11.36224000000000     0.00000000000000
167 1    23.37000000000000    13.49266000000000     0.00000000000000
168 1    24.60000000000000    15.62308000000000     0.00000000000000
169 1    25.83000000000000    17.75350000000000     0.00000000000000
170 1    27.06000000000000    19.88392000000000     0.00000000000000
171 1    18.45000000000000     0.71014000000000     0.00000000000000
172 1    19.68000000000000     2.84056000000000     0.00000000000000
173 1    20.91000000000000     4.97098000000000     0.00000000000000
174 1    22.14000000000000     7.10140000000000     0.00000000000000
175 1    23.37000000000000     9.23182000000000     0.00000000000000
176 1    24.60000000000000    11.36224000000000     0.00000000000000
177 1    25.83000000000000    13.49266000000000     0.00000000000000
178 1    27.06000000000000    15.62308000000000     0.00000000000000
179 1    28.29000000000000    17.75350000000000     0.00000000000000
180 1    29.52000000000000    19.88392000000000     0.00000000000000
181 1    20.91000000000000     0.71014000000000     0.00000000000000
182 1    22.14000000000000     2.84056000000000     0.00000000000000
183 1    23.37000000000000     4.97098000000000     0.00000000000000
184 1    24.60000000000000     7.10140000000000     0.00000000000000
185 1    25.83000000000001     9.23182000000000     0.00000000000000
186 1    27.06000000000000    11.36224000000000     0.00000000000000
187 1    28.29000000000000    13.49266000000000     0.00000000000000
188 1    29.52000000000000    15.62308000000000     0.00000000000000
189 1    30.75000000000001    17.75350000000000     0.00000000000000
190 1    31.98000000000000    19.88392000000000     0.00000000000000
191 1    23.37000000000000     0.71014000000000     0.00000000000000
192 1    24.60000000000000     2.84056000000000     0.00000000000000
193 1    25.83000000000000     4.97098000000000     0.00000000000000
194 1    27.06000000000000     7.10140000000000     0.00000000000000
195 1    28.29000000000000     9.23182000000000     0.00000000000000
196 1    29.52000000000000    11.36224000000000     0.00000000000000
197 1    30.75000000000000    13.49266000000000     0.00000000000000
198 1    31.98000000000000    15.62308000000000     0.00000000000000
199 1    33.21000000000000    17.75350000000000     0.00000000000000
200 1    34.44000000000000    19.88392000000000     0.00000000000000
201 2     0.00000000000000     0.00000000000000     3.40000000000000
202 2     1.23000000000000     2.13042000000000     3.40000000000000
203 2     2.46000000000000     4.26084000000000     3.40000000000000
204 2     3.69000000000000     6.39126000000000     3.40000000000000
205 2     4.92000000000000     8.52168000000000     3.40000000000000
206 2     6.15000000000000    10.65210000000000     3.40000000000000
207 2     7.38000000000000    12.78252000000000     3.40000000000000
208 2     8.61000000000000    14.91294000000000     3.40000000000000
209 2     9.84000000000000    17.04336000000000     3.40000000000000
210 2    11.07000000000000    19.17378000000000     3.40000000000000
211 2     2.46000000000000     0.00000000000000     3.40000000000000
212 2     3.69000000000000     2.13042000000000     3.40000000000000
213 2     4.92000000000000     4.26084000000000     3.40000000000000
214 2     6.15000000000000     6.39126000000000     3.40000000000000
215 2     7.38000000000000     8.52168000000000     3.40000000000000
216 2     8.61000000000000    10.65210000000000     3.40000000000000
217 2     9.84000000000000    12.78252000000000     3.40000000000000
218 2    11.07000000000000    14.91294000000000     3.40000000000000
219 2    12.30000000000000    17.04336000000000     3.40000000000000
220 2    13.53000000000000    19.17378000000000     3.40000000000000
221 2     4.92000000000000     0.00000000000000     3.40000000000000
222 2     6.15000000000000     2.13042000000000     3.40000000000000
223 2     7.38000000000000     4.26084000000000     3.40000000000000
224 2     8.61000000000000     6.39126000000000     3.40000000000000
225 2     9.84000000000000     8.52168000000000     3.40000000000000
226 2    11.07000000000000    10.65210000000000     3.40000000000000
227 2    12.30000000000000    12.78252000000000     3.40000000000000
228 2    13.53000000000000    14.91294000000000     3.40000000000000
229 2    14.76000000000000    17.04336000000000     3.40000000000000
230 2    15.99000000000000    19.17378000000000     3.40000000000000
231 2     7.38000000000000     0.00000000000000     3.40000000000000
232 2     8.61000000000000     2.13042000000000     3.40000000000000
233 2     9.84000000000000     4.26084000000000     3.40000000000000
234 2    11.07000000000000     6.39126000000000     3.40000000000000
235 2    12.30000000000000     8.52168000000000     3.40000000000000
236 2    13.53000000000000    10.65210000000000     3.40000000000000
237 2    14.76000000000000    12.78252000000000     3.40000000000000
238 2    15.99000000000000    14.91294000000000     3.40000000000000
239 2    17.22000000000000    17.04336000000000     3.40000000000000
240 2    18.45000000000000    19.17378000000000     3.40000000000000
241 2     9.84000000000000     0.00000000000000     3.40000000000000
242 2    11.07000000000000     2.13042000000000     3.40000000000000
243 2    12.30000000000000     4.26084000000000     3.40000000000000
244 2    13.53000000000000     6.39126000000000     3.40000000000000
245 2    14.76000000000000     8.52168000000000     3.40000000000000
246 2    15.99000000000000    10.65210000000000     3.40000000000000
247 2    17.22000000000000    12.78252000000000     3.40000000000000
248 2    18.45000000000000    14.91294000000000     3.40000000000000
249 2    19.68000000000000    17.04336000000000     3.40000000000000
250 2    20.91000000000000    19.17378000000000     3.40000000000000
251 2    12.30000000000000     0.00000000000000     3.40000000000000
252 2    13.53000000000000     2.13042000000000     3.40000000000000
253 2    14.76000000000000     4.26084000000000     3.40000000000000
254 2    15.99000000000000     6.39126000000000     3.40000000000000
255 2    17.22000000000000     8.52168000000000     3.40000000000000
256 2    18.45000000000000    10.65210000000000     3.40000000000000
257 2    19.68000000000000    12.78252000000000     3.40000000000000
258 2    20.91000000000000    14.91294000000000     3.40000000000000
259 2    22.14000000000000    17.04336000000000     3.40000000000000
260 2    23.37000000000000    19.17378000000000     3.40000000000000
261 2    14.76000000000000     0.00000000000000     3.40000000000000
262 2    15.99000000000000     2.13042000000000     3.40000000000000
263 2    17.22000000000000     4.26084000000000     3.40000000000000
264 2    18.45000000000000     6.39126000000000     3.40000000000000
265 2    19.68000000000000     8.52168000000000     3.40000000000000
266 2    20.91000000000000    10.65210000000000     3.40000000000000
267 2    22.14000000000000    12.78252000000000     3.40000000000000
268 2    23.37000000000000    14.91294000000000     3.40000000000000
269 2    24.60000000000000    17.04336000000000     3.40000000000000
270 2    25.83000000000000    19.17378000000000     3.40000000000000
271 2    17.22000000000000     0.00000000000000     3.40000000000000
272 2    18.45000000000000     2.13042000000000     3.40000000000000
273 2    19.68000000000000     4.26084000000000     3.40000000000000
274 2    20.91000000000000     6.39126000000000     3.40000000000000
275 2    22.14000000000000     8.52168000000000     3.40000000000000
276 2    23.37000000000000    10.65210000000000     3.40000000000000
277 2    24.60000000000000    12.78252000000000     3.40000000000000
278 2    25.83000000000000    14.91294000000000     3.40000000000000
279 2    27.06000000000000    17.04336000000000     3.40000000000000
280 2    28.29000000000000    19.17378000000000     3.40000000000000
281 2    19.68000000000000     0.00000000000000     3.40000000000000
282 2    20.91000000000000     2.13042000000000     3.40000000000000
283 2    22.14000000000000     4.26084000000000     3.40000000000000
284 2    23.37000000000000     6.39126000000000     3.40000000000000
285 2    24.60000000000000     8.52168000000000     3.40000000000000
286 2    25.83000000000001    10.65210000000000     3.40000000000000
287 2    27.06000000000000    12.78252000000000     3.40000000000000
288 2    28.29000000000000    14.91294000000000     3.40000000000000
289 2    29.52000000000000    17.04336000000000     3.40000000000000
290 2    30.75000000000000    19.17378000000000     3.40000000000000
291 2    22.14000000000000     0.00000000000000     3.40000000000000
292 2    23.37000000000000     2.13042000000000     3.40000000000000
293 2    24.60000000000000     4.26084000000000     3.40000000000000
294 2    25.83000000000000     6.39126000000000     3.40000000000000
295 2    27.06000000000000     8.52168000000000     3.40000000000000
296 2    28.29000000000000    10.65210000000000     3.40000000000000
297 2    29.52000000000000    12.78252000000000     3.40000000000000
298 2    30.75000000000000    14.91294000000000     3.40000000000000
299 2    31.98000000000000    17.04336000000000     3.40000000000000
300 2    33.21000000000000    19.17378000000000     3.40000000000000
301 2     1.23000000000000     0.71014000000000     3.40000000000000
302 2     2.46000000000000     2.84056000000000     3.40000000000000
303 2     3.69000000000000     4.97098000000000     3.40000000000000
304 2     4.92000000000000     7.10140000000000     3.40000000000000
305 2     6.15000000000000     9.23182000000000     3.40000000000000
306 2     7.38000000000000    11.36224000000000     3.40000000000000
307 2     8.61000000000000    13.49266000000000     3.40000000000000
308 2     9.84000000000000    15.62308000000000     3.40000000000000
309 2    11.07000000000000    17.75350000000000     3.40000000000000
310 2    12.30000000000000    19.88392000000000     3.40000000000000
311 2     3.69000000000000     0.71014000000000     3.40000000000000
312 2     4.92000000000000     2.84056000000000     3.40000000000000
313 2     6.15000000000000     4.97098000000000     3.40000000000000
314 2     7.38000000000000     7.10140000000000     3.40000000000000
315 2     8.61000000000000     9.23182000000000     3.40000000000000
316 2     9.84000000000000    11.36224000000000     3.40000000000000
317 2    11.07000000000000    13.49266000000000     3.40000000000000
318 2    12.30000000000000    15.62308000000000     3.40000000000000
319 2    13.53000000000000    17.75350000000000     3.40000000000000
320 2    14.76000000000000    19.88392000000000     3.40000000000000
321 2     6.15000000000000     0.71014000000000     3.40000000000000
322 2     7.38000000000000     2.84056000000000     3.40000000000000
323 2     8.61000000000000     4.97098000000000     3.40000000000000
324 2     9.84000000000000     7.10140000000000     3.40000000000000
325 2    11.07000000000000     9.23182000000000     3.40000000000000
326 2    12.30000000000000    11.36224000000000     3.40000000000000
327 2    13.53000000000000    13.49266000000000     3.40000000000000
328 2    14.76000000000000    15.62308000000000     3.40000000000000
329 2    15.99000000000000    17.75350000000000     3.40000000000000
330 2    17.22000000000000    19.88392000000000     3.40000000000000
331 2     8.61000000000000     0.71014000000000     3.40000000000000
332 2     9.84000000000000     2.84056000000000     3.40000000000000
333 2    11.07000000000000     4.97098000000000     3.40000000000000
334 2    12.30000000000000     7.10140000000000     3.40000000000000
335 2    13.53000000000000     9.23182000000000     3.40000000000000
336 2    14.76000000000000    11.36224000000000     3.40000000000000
337 2    15.99000000000000    13.49266000000000     3.40000000000000
338 2    17.22000000000000    15.62308000000000     3.40000000000000
339 2    18.45000000000000    17.75350000000000     3.40000000000000
340 2    19.68000000000000    19.88392000000000     3.40000000000000
341 2    11.07000000000000     0.71014000000000     3.40000000000000
342 2    12.30000000000000     2.84056000000000     3.40000000000000
343 2    13.53000000000000     4.97098000000000     3.40000000000000
344 2    14.76000000000000     7.10140000000000     3.40000000000000
345 2    15.99000000000000     9.23182000000000     3.40000000000000
346 2    17.22000000000000    11.36224000000000     3.40000000000000
347 2    18.45000000000000    13.49266000000000     3.40000000000000
348 2    19.68000000000000    15.62308000000000     3.40000000000000
349 2    20.91000000000000    17.75350000000000     3.40000000000000
350 2    22.14000000000000    19.88392000000000     3.40000000000000
351 2    13.53000000000000     0.71014000000000     3.40000000000000
352 2    14.76000000000000     2.84056000000000     3.40000000000000
353 2    15.99000000000000     4.97098000000000     3.40000000000000
354 2    17.22000000000000     7.10140000000000     3.40000000000000
355 2    18.45000000000000     9.23182000000000     3.40000000000000
356 2    19.68000000000000    11.36224000000000     3.40000000000000
357 2    20.91000000000000    13.49266000000000     3.40000000000000
358 2    22.14000000000000    15.62308000000000     3.40000000000000
359 2    23.37000000000000    17.75350000000000     3.40000000000000
360 2    24.60000000000000    19.88392000000000     3.40000000000000
361 2    15.99000000000000     0.71014000000000     3.40000000000000
362 2    17.22000000000000     2.84056000000000     3.40000000000000
363 2    18.45000000000000     4.97098000000000     3.40000000000000
364 2    19.68000000000000     7.10140000000000     3.40000000000000
365 2    20.91000000000000     9.23182000000000     3.40000000000000
366 2    22.14000000000000    11.36224000000000     3.40000000000000
367 2    23.37000000000000    13.49266000000000     3.40000000000000
368 2    24.60000000000000    15.62308000000000     3.40000000000000
369 2    25.83000000000000    17.75350000000000     3.40000000000000
370 2    27.06000000000000    19.88392000000000     3.40000000000000
371 2    18.45000000000000     0.71014000000000     3.40000000000000
372 2    19.68000000000000     2.84056000000000     3.40000000000000
373 2    20.91000000000000     4.97098000000000     3.40000000000000
374 2    22.14000000000000     7.10140000000000     3.40000000000000
375 2    23.37000000000000     9.23182000000000     3.40000000000000
376 2    24.60000000000000    11.36224000000000     3.40000000000000
377 2    25.83000000000000    13.49266000000000     3.40000000000000
378 2    27.06000000000000    15.62308000000000     3.40000000000000
379 2    28.29000000000000    17.75350000000000     3.40000000000000
380 2    29.52000000000000    19.88392000000000     3.40000000000000
381 2    20.91000000000000     0.71014000000000     3.40000000000000
382 2    22.14000000000000     2.84056000000000     3.40000000000000
383 2    23.37000000000000     4.97098000000000     3.40000000000000
384 2    24.60000000000000     7.10140000000000     3.40000000000000
385 2    25.83000000000001     9.23182000000000     3.40000000000000
386 2    27.06000000000000    11.36224000000000     3.40000000000000
387 2    28.29000000000000    13.49266000000000     3.40000000000000
388 2    29.52000000000000    15.62308000000000     3.40000000000000
389 2    30.75000000000001    17.75350000000000     3.40000000000000
390 2    31.98000000000000    19.88392000000000     3.40000000000000
391 2    23.37000000000000     0.71014000000000     3.40000000000000
392 2    24.60000000000000     2.84056000000000     3.40000000000000
393 2    25.83000000000000     4.97098000000000     3.40000000000000
394 2    27.06000000000000     7.10140000000000     3.40000000000000
395 2    28.29000000000000     9.23182000000000     3.40000000000000
396 2    29.52000000000000    11.36224000000000     3.40000000000000
397 2    30.75000000000000    13.49266000000000     3.40000000000000
398 2    31.98000000000000    15.62308000000000     3.40000000000000
399 2    33.21000000000000    17.75350000000000     3.40000000000000
400 2    34.44000000000000    19.88392000000000     3.40000000000000
